 ----------------------------------------------------------------------
 #p sto-3G HF geom=modela output=(mat,MO2ElectronIntegrals) int=noraff
 #scf=conventional
 ----------------------------------------------------------------------

 (Enter /opt/gaussian/gdv-20210302-j15/gdv/l101.exe)
 -----------------
 f2 matrix for MP2
 -----------------
 Charge =  0 Multiplicity = 1

                         Standard orientation:
 ---------------------------------------------------------------------
 Center     Atomic      Atomic             Coordinates (Angstroms)
 Number     Number       Type             X           Y           Z
 ---------------------------------------------------------------------
      1          9           0        0.000000    0.000000    0.710000
      2          9           0        0.000000    0.000000   -0.710000
 ---------------------------------------------------------------------

 SCF Done:  E(RHF) =  -195.965260551     A.U. after    5 cycles
 E2 =    -0.5323299317D-01 EUMP2 =    -0.19601849354370D+03

 The electronic state is 1-SGG.
 Alpha  occ. eigenvalues --      -26.03584     -26.03496      -1.61751      -1.34959      -0.60558
 Alpha  occ. eigenvalues --       -0.60558      -0.54775      -0.47014      -0.47014
 Alpha virt. eigenvalues --        0.34041

 Mulliken charges:
               1
     1  F   -0.000000
     2  F   -0.000000
 Sum of Mulliken charges =  -0.00000

 Dipole moment (field-independent basis, Debye):
    X=             -0.0000    Y=              0.0000    Z=              0.0000  Tot=              0.0000
 Quadrupole moment (field-independent basis, Debye-Ang):
   XX=             -7.8485   YY=             -7.8485   ZZ=             -7.6212
   XY=              0.0000   XZ=              0.0000   YZ=              0.0000

 Normal termination of Gaussian DV at Tue Oct 10 09:11:10 2023.
